LAMMPS data file generated by Avogadro
26 atoms
80 bonds
3 atom types
  1.181011   6.189152 xlo xhi
-23.293153 -18.300849 ylo yhi
  6.092116  10.927245 zlo zhi
  0.000000   0.000000   0.000000 xy xz yz


Masses
4   178.49
5   106.42
6   101.07
7   47.867
2   1.00784
1   15.999
3   91.224


Atoms
1    1   3.816372 -18.626261   8.648071
2    1   2.605753 -19.763045  10.447504
3    1   4.814546 -22.433524  10.437300
4    1   2.445769 -20.730789  10.811952
5    1   3.974800 -18.588627   9.757558
6    1   5.895418 -21.774776   7.625699
7    2   4.912885 -22.601764  11.427245
8    2   3.740042 -17.800849   9.216513
9    2   6.689152 -21.577717   7.050857
10   2   1.681011 -22.439090   7.822245
11   1   3.710761 -19.906908   6.592116
12   1   2.634031 -22.362368   8.113535
13   1   4.384467 -21.622190   8.879789
14   3   2.569462 -19.978025   8.632367
15   1   3.582391 -19.146761   7.304713
16   3   5.952703 -21.458931   9.445421
17   3   4.535556 -20.047754  10.552931
18   3   4.058559 -21.474601   7.210528
19   3   3.072852 -22.022040   9.851399
20   3   5.324597 -19.409429   8.057189
21   1   6.206175 -20.747545   7.250645
22   1   4.610232 -21.669899  11.301197
23   1   4.589538 -22.793153   8.695259
24   1   6.629827 -19.856352   9.549731
25   1   5.920518 -19.151912   9.921326
26   1   1.914377 -21.488564   7.946861


Bonds
1          1      22       3
2          1      24      25
3          1       5       1
4          2      20      25
5          0      19       4
6          0       4      14
7          0       4      17
8          1       4       2
9          0       6      18
10         3       6       9
11         0       6      16
12         1       6      21
13         0       6      20
14         0      22       7
15         0       7       3
16         0       8       1
17         0       8       5
18         0       9      21
19         0      10      12
20         0      10      26
21         0      11      18
22         0      11      14
23         1      11      15
24         0      11      20
25         0      12      18
26         1      12      26
27         0      12      19
28         0      12      14
29         0      13      18
30         1      13      23
31         0      13      19
32         0      13      14
33         0      13      17
34         0      13      16
35         0      13      20
36         4      14      18
37         2      14      26
38         4      14      19
39         2      14      15
40         2      14       1
41         4      14      17
42         2      14       5
43         2      14       2
44         4      14      20
45         0      15      18
46         1      15       1
47         0      15      20
48         4      16      18
49         2      16      23
50         4      16      19
51         2      16      22
52         2      16       3
53         4      16      17
54         2      16      21
55         4      16      20
56         2      16      24
57         2      16      25
58         4      17      19
59         2      17      22
60         2      17       3
61         2      17       1
62         2      17       5
63         2      17       2
64         4      17      20
65         2      17      24
66         2      17      25
67         2      18      23
68         2      18      26
69         4      18      19
70         2      18      21
71         4      18      20
72         2      19      23
73         2      19      26
74         2      19      22
75         2      19       3
76         2      19       2
77         2      20       1
78         2      20       5
79         2      20      21
80         2      20      24
